{
  "Hg": {
    "atomic_number": 0,
    "electronegativity": 2.0,
    "atomic radius": 171,
    "ionization energy": 0,
    "melting_point": -38.9
  },
  "Cs": {
    "atomic_number": 1,
    "electronegativity": 0.79,
    "atomic radius": 298,
    "ionization energy": 0,
    "melting_point": 28.4
  },
  "Ga": {
    "atomic_number": 2,
    "electronegativity": 1.81,
    "atomic radius": 136,
    "ionization energy": 0,
    "melting_point": 29.8
  },
  "Rb": {
    "atomic_number": 3,
    "electronegativity": 0.82,
    "atomic radius": 265,
    "ionization energy": 0,
    "melting_point": 39.5
  },
  "K": {
    "atomic_number": 4,
    "electronegativity": 0.82,
    "atomic radius": 243,
    "ionization energy": 0,
    "melting_point": 63.2
  },
  "Na": {
    "atomic_number": 5,
    "electronegativity": 0.93,
    "atomic radius": 190,
    "ionization energy": 0,
    "melting_point": 97.8
  },
  "S": {
    "atomic_number": 6,
    "electronegativity": 1.9,
    "atomic radius": 87,
    "ionization energy": 0,
    "melting_point": 115.2
  },
  "In": {
    "atomic_number": 7,
    "electronegativity": 1.78,
    "atomic radius": 156,
    "ionization energy": 0,
    "melting_point": 156.6
  },
  "Li": {
    "atomic_number": 8,
    "electronegativity": 0.98,
    "atomic radius": 167,
    "ionization energy": 0,
    "melting_point": 180.5
  },
  "Se": {
    "atomic_number": 9,
    "electronegativity": 2.55,
    "atomic radius": 103,
    "ionization energy": 0,
    "melting_point": 220.8
  },
  "Sn": {
    "atomic_number": 10,
    "electronegativity": 1.96,
    "atomic radius": 145,
    "ionization energy": 0,
    "melting_point": 231.9
  },
  "Bi": {
    "atomic_number": 11,
    "electronegativity": 2.02,
    "atomic radius": 143,
    "ionization energy": 0,
    "melting_point": 271.4
  },
  "Tl": {
    "atomic_number": 12,
    "electronegativity": 1.62,
    "atomic radius": 156,
    "ionization energy": 0,
    "melting_point": 304.0
  },
  "Cd": {
    "atomic_number": 13,
    "electronegativity": 1.69,
    "atomic radius": 161,
    "ionization energy": 0,
    "melting_point": 321.1
  },
  "Pb": {
    "atomic_number": 14,
    "electronegativity": 1.87,
    "atomic radius": 154,
    "ionization energy": 0,
    "melting_point": 327.5
  },
  "Zn": {
    "atomic_number": 15,
    "electronegativity": 1.65,
    "atomic radius": 142,
    "ionization energy": 0,
    "melting_point": 419.5
  },
  "Te": {
    "atomic_number": 16,
    "electronegativity": 2.1,
    "atomic radius": 123,
    "ionization energy": 0,
    "melting_point": 449.5
  },
  "Sb": {
    "atomic_number": 17,
    "electronegativity": 2.05,
    "atomic radius": 133,
    "ionization energy": 0,
    "melting_point":630.6
  },
  "Mg": {
    "atomic_number": 18,
    "electronegativity": 1.31,
    "atomic radius": 145,
    "ionization energy": 0,
    "melting_point": 649.9
  },
  "Al": {
    "atomic_number": 19,
    "electronegativity": 1.61,
    "atomic radius": 118,
    "ionization energy": 0,
    "melting_point": 660.3
  },
  "Ba": {
    "atomic_number": 20,
    "electronegativity": 0.89,
    "atomic radius": 253,
    "ionization energy": 0,
    "melting_point": 726.0
  },
  "Sr": {
    "atomic_number": 21,
    "electronegativity": 0.95,
    "atomic radius": 219,
    "ionization energy": 0,
    "melting_point": 776.0
  },
  "As": {
    "atomic_number": 22,
    "electronegativity": 2.18,
    "atomic radius": 114,
    "ionization energy": 0,
    "melting_point":817.0
  },
  "Ca": {
    "atomic_number": 23,
    "electronegativity": 1.0,
    "atomic radius": 194,
    "ionization energy": 0,
    "melting_point":841.0
  },
  "Ge": {
    "atomic_number": 24,
    "electronegativity": 2.01,
    "atomic radius": 125,
    "ionization energy": 0,
    "melting_point":938.3
  },
  "Ag": {
    "atomic_number": 25,
    "electronegativity": 1.93,
    "atomic radius": 165,
    "ionization energy": 0,
    "melting_point":961.8
  }
}